% Model:              estacionario.mph
% Version:            COMSOL 5.3.0.223
% Date:               Jul 17 2018, 15:51
% Dimension:          2
% Nodes:              4537
% Expressions:        1
% Description:        Temperature
% Length unit:        m
% X                       Y                        Theta (K)
-500                      -480.0000000000001       0
-500                      -500                     0
-487.04666660009923       -486.4754379792619       3.333626836933328E-28
-479.9999999999991        -500                     0
-500                      -460.0000000000001       0
-485.168247285967         -469.9011631911273       1.0959617116772048E-27
-459.9999999999991        -500                     0
-470.06508571453          -482.47602670518273      2.4295629907935496E-27
-499.99999999999994       -440.00000000000017      0
-484.43619421117484       -450.1427065145893       2.961303803373535E-27
-439.9999999999991        -500                     0
-449.19923863581226       -483.9523158060338       1.4485757889308054E-26
-500                      -420.0000000000002       0
-484.03545823336566       -430.1772099646201       7.425241522521892E-27
-419.9999999999991        -500                     0
-429.5247541602023        -483.83441890995346      7.97588855119701E-26
-399.999999999999         -500                     0
-409.8107460588917        -483.7743315584747       4.224733411651005E-25
-500                      -400.00000000000034      0
-483.98856482197425       -410.1400281026458       1.6328572587615523E-26
-379.999999999999         -500                     0
-389.8955190738196        -483.76740217815296      2.2364276075157735E-24
-500                      -380.00000000000034      0
-483.9438355335337        -390.10991077564694      3.496575118224245E-26
-359.999999999999         -500                     0
-369.92992935751397       -483.78696171545283      1.1768637140377274E-23
-500                      -360.00000000000045      0
-483.89800785730836       -370.0847897251151       7.266740073266761E-26
-339.999999999999         -500                     0
-349.95980523064674       -483.79770638539145      6.154419228550023E-23
-500.00000000000006       -340.0000000000005       0
-483.86374558937956       -350.0544245463073       1.4597078391141688E-25
-319.999999999999         -500                     0
-329.9855237955671        -483.80261999980456      3.1678233014649386E-22
-499.99999999999994       -320.0000000000005       0
-483.8355978145607        -330.03080130246826      2.831701275754634E-25
-299.999999999999         -500                     0
-309.9960954322069        -483.80461571851544      1.5986062986861703E-21
-500                      -300.00000000000057      0
-483.8190547493718        -310.0146753170405       5.296399986385432E-25
-279.99999999999886       -500                     0
-289.99902234602354       -483.80515867371446      7.88246459255177E-21
-500                      -280.0000000000007       0
-483.8105788745418        -290.0058781604103       9.555903569852916E-25
-259.99999999999886       -500                     0
-269.9999999999989        -483.80532494923096      3.7848121736793544E-20
-500                      -260.0000000000008       0
-483.80699992580503       -270.001922130044        1.6643970084443544E-24
-239.99999999999886       -500                     0
-249.99999999999895       -483.80532494923096      1.765458213068569E-19
-500.00000000000006       -240.00000000000085      0
-483.8056638273556        -250.00037938719302      2.7999552475975515E-24
-219.99999999999886       -500                     0
-229.99999999999895       -483.80532494923096      7.983789459760978E-19
-0.6247264466224259       -0.7808436891532884      1
-0.7808452154024508       -0.6247245389634539      1
-0.8908444415183747       -0.7910732550640875      0.9354596976968953
-500                      -220.00000000000088      0
-483.8053356386545        -230.0000095288664       4.548714864786395E-24
-0.43815094229084794      -0.8989014138211386      1
-0.6181482746267539       -1.0257299723848412      0.936117748931199
-0.23021759150675558      -0.9731391784122294      1
-0.412077465446623        -1.114841647069053       0.941111065037311
-199.99999999999886       -500                     0
-209.99999999999895       -483.80532494923096      3.493457039992204E-18
-0.8989024598604074       -0.4381487962518083      1
-1.0576833001868933       -0.6171387413970032      0.9235950574342587
-499.99999999999994       -200.00000000000085      0
-483.805324949231         -210.0000000000009       7.132180185957801E-24
0                         -1                       1
-0.17504656133458005      -1.2219598025146199      0.930974858929119
-179.99999999999883       -500                     0
-189.99999999999886       -483.805324949231        1.476255856318662E-17
-0.9731373580825492       -0.2302252859790085      1
-1.120740537968598        -0.4068268155437292      0.9330566240437058
-500                      -180.0000000000009       0
-483.80532494923096       -190.0000000000009       1.0783947355162279E-23
0.2302252859790085        -0.9731373580825492      1
0.12062664872829695       -1.2313118653579624      0.9341572949061481
-159.99999999999883       -500                     0
-169.99999999999883       -483.80532494923096      6.013393291074592E-17
-139.99999999999878       -500                     0
-149.99999999999883       -483.80532494923096      2.357074563662799E-16
-1                        0                        1
-1.199100241280072        -0.08230619716574641     0.9293494173769162
-500                      -160.000000000001        0
-483.80532494923096       -170.0000000000009       1.570781591970339E-23
-500                      -140.00000000000102      0
-483.80532494923096       -150.00000000000094      2.2018399963505148E-23
-119.99999999999875       -500                     0
-129.99999999999878       -483.80532494923096      8.876410151492421E-16
-99.99999999999875        -500                     0
-109.99999999999875       -483.80532494923096      3.2070911993662004E-15
0.4381487962518083        -0.8989024598604074      1
0.3910412771772126        -1.167847304721366       0.9384635442151206
0.7808436891532884        -0.6247264466224259      1
0.6247245389634539        -0.7808452154024508      1
0.7879882632789852        -0.8787477232923093      0.9548976882228305
0.6137957078958892        -1.0190044111784646      0.9510244487260008
-0.9731391784122294       0.23021759150675558      1
-1.2294614431400996       0.17642005532749952      0.9168292573819531
-0.8989014138211386       0.43815094229084794      1
-1.1363975678834395       0.4337492066500214       0.9258599767117032
-500                      -120.00000000000102      0
-483.80532494923096       -130.00000000000102      2.967179418269431E-23
-500                      -100.00000000000111      0
-483.80532494923096       -110.00000000000108      3.840306547514187E-23
-79.99999999999875        -500                     0
-89.99999999999875        -483.80532494923096      1.1104266613900966E-14
-59.99999999999875        -500                     0
-69.99999999999875        -483.80532494923096      3.6810221856049067E-14
0.8989014138211386        -0.43815094229084794     1
0.9505853434883471        -0.6472861113729842      0.9636173425441458
-0.7808436891532884       0.6247264466224259       1
-1.0313121716193392       0.6917017050517748       0.9193445799885255
-500                      -80.00000000000114       0
-483.80532494923096       -90.00000000000108       4.7693514461171714E-23
-39.99999999999872        -500                     0
-49.99999999999874        -483.80532494923096      1.1674668827898963E-13
0.9731391784122294        -0.23021759150675558     1
1.132986359108339         -0.4028679783720753      0.9536121095308477
-0.6247245389634539       0.7808452154024508       1
-0.8475291256265712       0.8939029373722576       0.9242661925533547
-0.4381487962518083       0.8989024598604074       1
-0.647778632645133        1.0189294243685256       0.9332380152466592
-500                      -60.00000000000114       0
-483.80532494923114       -70.00000000000085       5.679026864524476E-23
-500                      -40.000000000001165      0
-483.80532494923153       -49.99999999999978       6.479062359421558E-23
-19.999999999998664       -500                     0
-29.99999999999871        -483.80532494923096      3.5409281877124186E-13
1.2789769243681803E-12    -500                     0
-9.99999999999871         -483.80532494923096      1.0267951030894338E-12
0.8989024598604074        0.4381487962518083       1
0.9731373580825492        0.2302252859790085       1
1.1082704116989894        0.34250277831166354      0.9628447672644203
1                         0                        1
1.215569284019368         -0.1800818868235285      0.9487909195238602
1.2037655526429576        0.0635827285778227       0.9536719698998467
0.7808452154024508        0.6247245389634539       1
1.0172069734069171        0.5765522883227112       0.9599867481462926
-0.2302252859790085       0.9731373580825492       1
-0.34642248370465384      1.1047993788068986       0.9503972137478962
-500                      -20.00000000000125       0
-483.805324949233         -29.99999999999503       7.078440059050166E-23
-500                      -1.2789769243681803E-12  0
-483.8053249492398        -9.999999999974344       7.402539117314041E-23
-500                      19.999999999998664       0
-483.80532494926746       10.000000000113722       7.40871339369527E-23
20.00000000000125         -500                     0
10.000000000001256        -483.80532494923096      2.8466767529236423E-12
40.000000000001165        -500                     0
30.00000000000121         -483.80532494923096      7.546860938167732E-12
0.6247264466224259        0.7808436891532884       1
0.8678377292627519        0.7899361560461169       0.9575857597475436
0                         1                        1
-0.07476609411416373      1.190228664598279        0.9430674743020514
-500                      39.99999999999872        0
-483.8053249493805        30.000000000480792       7.095726442523948E-23
60.00000000000114         -500                     0
50.000000000001165        -483.80532494923096      1.914006900961736E-11
80.00000000000114         -500                     0
70.00000000000114         -483.80532494923096      4.646542029772772E-11
0.43815094229084794       0.8989014138211386       1
0.6356326669142299        1.0295943023317486       0.946275811383206
0.23021759150675558       0.9731391784122294       1
0.4243196351990343        1.1161434963654198       0.9479867891834296
0.19573914802673253       1.2170709107932496       0.9355389485937887
-500                      59.99999999999875        0
-483.8053249498328        50.00000000197695        6.50410350246522E-23
-500                      79.99999999999875        0
-483.80532495160924       70.00000000792505        5.707276118703291E-23
100.00000000000111        -500                     0
90.00000000000114         -483.805324949231        1.0806037592470618E-10
120.00000000000102        -500                     0
110.00000000000108        -483.80532494923096      2.4097387113917155E-10
-500                      99.99999999999875        0
-483.80532495844426       90.00000003091266        4.796259308073717E-23
-500                      119.99999999999875       0
-483.80532498412657       110.00000011691141       3.862366430324315E-23
140.00000000000102        -500                     0
130.00000000000102        -483.80532494923096      5.158535079125805E-10
160.000000000001          -500                     0
150.00000000000094        -483.80532494923096      1.0614112773483934E-9
-500                      139.99999999999878       0
-483.8053250777885        130.0000004266819        2.9825249316615927E-23
-500                      159.99999999999883       0
-483.8053254054564        150.0000014934374        2.2102843706279767E-23
180.0000000000009         -500                     0
170.0000000000009         -483.80532494923096      2.1020475806653913E-9
200.00000000000085        -499.99999999999994      0
190.0000000000009         -483.80532494923096      4.0127883008647996E-9
-500                      179.99999999999883       0
-483.8053264811306        170.00000497182478       1.573402430697284E-23
-500                      199.99999999999886       0
-483.8053296569072        190.0000155672009        1.0769054659169831E-23
220.00000000000088        -500                     0
210.0000000000009         -483.805324949231        7.395557197408052E-9
240.00000000000085        -500.00000000000006      0
230.00000331905844        -483.80534274465657      1.3179924944899113E-8
-500                      219.99999999999886       0
-483.80533734400296       210.00004515719078       7.093843795031807E-24
-500                      239.99999999999886       0
-483.80534872654107       230.00011925791605       4.5013824677042124E-24
260.0000000000008         -500                     0
250.00001932605866        -483.8054409259449       2.2749496471717598E-8
280.0000000000007         -500                     0
270.00023711291664        -483.80743185132764      3.808684226783705E-8
-500                      259.99999999999886       0
-483.8053386777519        250.00028532851425       2.753676720993453E-24
300.00000000000057        -500                     0
290.00096588616424        -483.8134291600232       6.193533688190841E-8
320.0000000000005         -499.99999999999994      0
310.00243978802433        -483.8231697171557       9.798654558685625E-8
-500                      279.99999999999886       0
-483.80523155657556       270.000663059001         1.6250362421068983E-24
-500                      299.999999999999         0
-483.80470576619837       290.0017702187509        9.256253445723934E-25
-500                      319.999999999999         0
-483.7995129800049        310.0049506491976        5.09317950590393E-25
340.0000000000005         -500.00000000000006      0
330.0050867788695         -483.83751722767346      1.5104475546158782E-7
360.00000000000045        -500                     0
350.00718837808654        -483.86577031715996      2.2697383433834378E-7
-500                      339.999999999999         0
-483.7914351401715        330.01146957529005       2.705154777508384E-25
-500                      359.999999999999         0
-483.77296044152564       350.0289321472066        1.386730106396551E-25
380.00000000000034        -500                     0
370.0103172294478         -483.91081622794894      3.3271621493199645E-7
-500                      379.999999999999         0
-483.73517089546857       370.0816001235612        6.853489509492082E-26
400.00000000000034        -500                     0
390.03095384998323        -483.9596817675072       4.767144712296231E-7
420.0000000000002         -500                     0
410.0693511960722         -484.013272793202        6.687280376351586E-7
-500                      399.999999999999         0
-483.697182476955         390.24417548472366       3.242343869047155E-26
-500                      419.9999999999991        0
-483.897413944476         410.61183447597494       1.4073967412824608E-26
440.00000000000017        -499.99999999999994      0
430.0701366347264         -484.12260132988854      9.120324127518206E-7
460.0000000000001         -500                     0
450.01040350614454        -484.5261214222469       1.180857060703637E-6
-500                      439.9999999999991        0
-483.6107134644113        430.2742970902115        6.521283263131427E-27
-500                      459.9999999999991        0
-483.85836778183824       449.12202237225955       3.281917672820339E-27
480.0000000000001         -500                     0
469.8035802397297         -485.16747771226073      1.356074707991871E-6
500                       -500                     0
486.42857210710946        -486.9867498506848       9.950762376602231E-7
-500                      479.9999999999991        0
-481.7916632744888        469.6537696151125        1.4396831295938956E-27
-500                      500                      0
-486.1928696357378        487.0656603064484        3.457037076408379E-28
500                       -479.9999999999991       0
-480.0000000000001        500                      0
500                       -459.9999999999991       0
482.3392802958176         -469.76627154116466      3.1652230558729565E-6
-460.0000000000001        500                      0
-469.1726849041999        485.6745319171308        2.179719210710773E-27
500                       -439.9999999999991       0
483.8491937018776         -448.9386707132034       6.826853836985498E-6
-440.00000000000017       499.99999999999994       0
-450.2537272514482        484.3325383366212        1.2647953817321461E-26
500                       -419.9999999999991       0
483.7087015653614         -429.5246958845303       1.3856857539306965E-5
-420.0000000000002        500                      0
-430.45498572611075       483.8691411475735        7.088303397129077E-26
500                       -399.999999999999        0
483.70482189999257        -409.7915486222067       2.7145559347979638E-5
-400.00000000000034       500                      0
-410.4250253019015        483.7984770542466        3.8769539408176185E-25
500                       -379.999999999999        0
483.7447328960706         -389.8600637019587       5.230969107321642E-5
-380.00000000000034       500                      0
-390.30078334752784       483.8281826185828        2.133690299327973E-24
500                       -359.999999999999        0
483.78471544271196        -369.918532612792        9.889403978074477E-5
-360.00000000000045       500                      0
-370.1696306991493        483.8545838206071        1.156426886710559E-23
500                       -339.999999999999        0
483.79993389766173        -349.961304235264        1.8333337269278358E-4
-340.0000000000005        500.00000000000006       0
-350.0520273673416        483.8594693121234        6.168113618354202E-23
500                       -319.999999999999        0
483.80422832086515        -329.98697684617076      3.324753636995181E-4
-320.0000000000005        499.99999999999994       0
-330.04299083964713       483.83516983710115       3.193319455225609E-22
500                       -299.999999999999        0
483.80532494923096        -309.99999999999903      5.888874536589436E-4
-300.00000000000057       500                      0
-310.02256781388695       483.8205483790153        1.614852750130586E-21
500                       -279.99999999999886      0
483.80532494923096        -289.9999999999989       0.0010172891952236198
-280.0000000000007        500                      0
-290.0076230960983        483.8140102576859        7.957115014519059E-21
500                       -259.99999999999886      0
483.80532494923096        -269.9999999999989       0.0017104425225039806
-260.0000000000008        500                      0
-270.00156947150674       483.8103773155097        3.809232714646384E-20
500                       -239.99999999999886      0
483.80532494923096        -249.99999999999895      0.0027948011108289727
-240.00000000000085       500.00000000000006       0
-250.00075074586178       483.80722053076676       1.7713100223040114E-19
500                       -219.99999999999886      0
483.80532494923096        -229.99999999999895      0.004430923669964493
-220.00000000000088       500                      0
-230.00017956557426       483.8056719265441        7.985114333020576E-19
500                       -199.99999999999886      0
483.80532494923096        -209.99999999999895      0.006805576509598365
-200.00000000000085       499.99999999999994       0
-210.0000000000009        483.805324949231         3.482484036602225E-18
500                       -179.99999999999883      0
483.805324949231          -189.99999999999886      0.010111157402565822
-180.0000000000009        500                      0
-190.0000000000009        483.80532494923096       1.4665784062366378E-17
500                       -159.99999999999883      0
483.80532494923096        -169.99999999999883      0.014509765617198295
-160.000000000001         500                      0
-170.0000000000009        483.80532494923096       5.953216461521928E-17
500                       -139.99999999999878      0
483.80532494923096        -149.99999999999883      0.020083110158416698
-140.00000000000102       500                      0
-150.00000000000094       483.80532494923096       2.3255218668921803E-16
500                       -119.99999999999875      0
483.80532494923096        -129.99999999999878      0.026775556291397096
-120.00000000000102       500                      0
-130.00000000000102       483.80532494923096       8.729722758332816E-16
500                       -99.99999999999875       0
483.80532494923096        -109.99999999999875      0.03434444718211214
-100.00000000000111       500                      0
-110.00000000000108       483.80532494923096       3.1453504732789674E-15
500                       -79.99999999999875       0
483.80532494923096        -89.99999999999875       0.042336505318249
-80.00000000000114        500                      0
-90.00000000000114        483.805324949231         1.0866371921241477E-14
500                       -59.99999999999875       0
483.80532494923096        -69.99999999999875       0.05010815895265141
-60.00000000000114        500                      0
-70.00000000000114        483.80532494923096       3.596519535145907E-14
500                       -39.99999999999872       0
483.80532494923096        -49.99999999999874       0.05689881095001758
-40.000000000001165       500                      0
-50.000000000001165       483.80532494923096       1.1396565850573674E-13
500                       -19.999999999998664      0
483.80532494923096        -29.99999999999871       0.06195031568548801
-20.00000000000125        500                      0
-30.00000000000121        483.80532494923096       3.455793895971299E-13
500                       1.2789769243681803E-12   0
483.8053249492311         -9.999999999998716       0.06464819963720146
-1.2789769243681803E-12   500                      0
-10.000000000001256       483.80532494923096       1.0024718859902732E-12
500                       20.00000000000125        0
483.8053249492311         10.000000000001254       0.06464796415124184
19.999999999998664        500                      0
9.99999999999871          483.80532494923096       2.781623522249644E-12
500                       40.000000000001165       0
483.80532494923096        30.00000000000121        0.06194970637486286
39.99999999999872         500                      0
29.99999999999871         483.80532494923096       7.383516612043516E-12
500                       60.00000000000114        0
483.80532494923096        50.000000000001165       0.05689807610002597
59.99999999999875         500                      0
49.99999999999874         483.80532494923096       1.8753883566239188E-11
500                       80.00000000000114        0
483.80532494923096        70.00000000000114        0.05010759073639368
79.99999999999875         500                      0
69.99999999999875         483.80532494923096       4.560302648305032E-11
500                       100.00000000000111       0
483.80532494923096        90.00000000000114        0.042336322216848195
99.99999999999875         500                      0
89.99999999999875         483.80532494923096       1.0623485659778359E-10
500                       120.00000000000102       0
483.80532494923096        110.00000000000108       0.03434472051593029
119.99999999999875        500                      0
109.99999999999875        483.80532494923096       2.3729504214603343E-10
500                       140.00000000000102       0
483.80532494923096        130.00000000000102       0.02677620654408597
139.99999999999878        500                      0
129.99999999999878        483.80532494923096       5.087577472032366E-10
500                       160.000000000001         0
483.80532494923096        150.00000000000094       0.02008396091799025
159.99999999999883        500                      0
149.99999999999883        483.80532494923096       1.0482252571485426E-9
500                       180.0000000000009        0
483.80532494923096        170.0000000000009        0.014510619895729498
179.99999999999883        500                      0
169.99999999999883        483.80532494923096       2.0782583314708165E-9
499.99999999999994        200.00000000000085       0
483.80532494923096        190.0000000000009        0.010111861607269611
199.99999999999886        500                      0
189.99999999999886        483.805324949231         3.970787009051049E-9
500                       220.00000000000088       0
483.805324949231          210.0000000000009        0.006806052160241429
219.99999999999886        500                      0
209.99999999999895        483.80532494923096       7.322460701243528E-9
500.00000000000006        240.00000000000085       0
483.8055085876815         229.99999456506063       0.004431136759224615
239.99999999999886        500                      0
229.99999999999895        483.80532494923096       1.3053954051399176E-8
500                       260.0000000000008        0
483.8060199056119         250.00000988494153       0.002794776455624506
259.99999999999886        500                      0
249.99784650589663        483.8043394248879        2.2535161160540154E-8
500                       280.0000000000007        0
483.8069820664909         270.0001593863269        0.0017102406871322884
279.99999999999886        500                      0
269.9928296617348         483.80213301111297       3.773438355202944E-8
500                       300.00000000000057       0
483.8086202002252         290.0007847016694        0.0010169748456127163
299.999999999999          500                      0
289.98172829539266        483.7975219040982        6.13892887338511E-8
499.99999999999994        320.0000000000005        0
483.8111902077342         310.0033553128346        5.885086570025224E-4
319.999999999999          500                      0
309.9605222580797         483.7890574728605        9.718884950378953E-8
500.00000000000006        340.0000000000005        0
483.8166028273381         330.0093411390637        3.318975289946118E-4
339.999999999999          500                      0
329.923352597179          483.7732473672229        1.4997775146993792E-7
500                       360.00000000000045       0
483.8320882438497         350.01452371451757       1.8266505364050378E-4
359.999999999999          500                      0
349.8654274726627         483.7419856756489        2.2601495373879992E-7
500                       380.00000000000034       0
483.85598275057254        370.02177025209267       9.826065020803907E-5
379.999999999999          500                      0
369.7930633045709         483.68636609257715       3.331981381531131E-7
500                       400.00000000000034       0
483.88394440831524        390.03546891497245       5.172301909519247E-5
399.999999999999          500                      0
389.7451607280551         483.62498806008546       4.803310276334083E-7
500                       420.0000000000002        0
483.93512967044944        410.04940423648503       2.6655235514973305E-5
419.9999999999991         500                      0
409.7198164578967         483.6167583829436        6.75107790171188E-7
499.99999999999994        440.00000000000017       0
484.03271404940915        430.0454422143239        1.3430181308640739E-5
439.9999999999991         500                      0
429.48236945703576        483.6377688841216        9.231556688990064E-7
500                       460.0000000000001        0
484.3819778084673         449.99159009833966       6.516610646825768E-6
459.9999999999991         500                      0
448.65525091581657        483.664337159594         1.2279643114766601E-6
500                       480.0000000000001        0
484.96014994111994        469.7513102603172        2.942660946910239E-6
479.9999999999991         500                      0
469.21866948482915        482.1048446828116        1.6364093498533364E-6
500                       500                      0
486.84116012091664        486.361134909455         1.013804919062367E-6
-469.46153664017885       -460.3128118306828       7.882354504319208E-27
-455.26101045781695       -469.26442122682977      2.178172075968665E-26
-467.95192035844246       -440.46507351587223      2.4397611039588218E-26
-438.6992769984019        -467.7750762158871       9.049040034592608E-26
-449.9656266062529        -450.89835271279316      6.734005823173266E-26
-468.0184250680968        -420.3146119593792       5.480824608846514E-26
-419.36066529151884       -467.47698212051296      4.60956593422572E-25
-452.12617569610853       -430.6321230384614       1.3930795023312843E-25
-428.99197625792726       -450.97675152647054      4.037307416149948E-25
-437.21074235839666       -436.72983907451004      3.990000007840418E-25
-399.55530068615184       -467.4688666738803       2.453298803742448E-24
-467.9527350044293        -400.22777071789284      1.2099015966579209E-25
-452.0588737788578        -410.2436888837271       3.3061276347406125E-25
-409.3126210927518        -450.9284377776377       2.201482155573014E-24
-436.0059374806052        -419.88015759390936      8.65008682274056E-25
-419.4029252002415        -432.05182125748263      1.8095301941560088E-24
-379.7087428392486        -467.5558982593659       1.2732179491286333E-23
-467.8683634071115        -380.18498407276365      2.6008880156428515E-25